53
Properties=species:S:1:pos:R:3:momenta:R:3:forces:R:3:energies:R:1 dipep.pdb=T fimd_dt_fs=0.5 fimd_precision=float64 energy=-332.3039912553698 stress="3.904107857620072e-08 2.3600572129437662e-08 -6.474612067695034e-09 2.3600572129437662e-08 2.920447032902386e-08 -1.4331729173211766e-08 -6.474612067695034e-09 -1.4331729173211766e-08 9.76639786357929e-09" free_energy=-332.3039912553698 pbc="F F F"
H        1.95107342       1.13591810       0.44245642      -0.00493063       0.00106126      -0.00572263       0.00368554       0.00550187      -0.00946965      -3.49671406
C        2.10136333       2.00125899      -0.20822885      -0.07181697       0.06862796       0.00370222       0.09921702       0.16023886      -0.08464925      -9.31938806
H        1.32026891       2.75236351      -0.03419853      -0.00314501       0.00705797       0.01128391       0.03587583      -0.00333187      -0.01591523      -3.53853377
H        2.01677855       1.66686274      -1.25377341      -0.01326664       0.01538304      -0.00259964       0.01779869       0.02819133       0.02939234      -3.52818067
C        3.50210261       2.54908307       0.08052102      -0.02752076      -0.00692071      -0.01229487       0.08685607       0.07659201       0.03577786      -8.87758639
O        4.36398335       1.90293057       0.68911611      -0.08880035      -0.06970510      -0.00135640       0.06818889       0.14785081      -0.03206570      -6.82917782
N        3.71782182       3.82218156      -0.39610635       0.08028649      -0.02451399      -0.01937957       0.08846576       0.08180514       0.03909880      -8.79343721
H        3.03068887       4.30523522      -0.97743499       0.00678160       0.00663166       0.00401114       0.01414672       0.00303148       0.01148132      -3.64080441
C        4.93446077       4.57056702      -0.18018646       0.09092228      -0.05471144       0.05095722       0.12611510      -0.05908453      -0.16538886      -8.98359450
H        5.37725178       4.26304931       0.78306490       0.01187284      -0.01358935      -0.00025784       0.00291633       0.01633434      -0.04494798      -3.46117399
C        5.96277872       4.31150341      -1.33528697      -0.03813867       0.07871876      -0.09317623       0.13254037      -0.42802049      -0.18911519      -9.31497500
H        6.12065762       3.21211490      -1.36409635      -0.00963140       0.00291857      -0.03285310      -0.01494530       0.24542310       0.02139660      -3.47377423
H        5.44491265       4.61091705      -2.26761255      -0.00863122       0.03049738      -0.00050742       0.12060875      -0.10493349       0.18562286      -3.46957556
C        7.31445006       5.03547043      -1.25273131       0.00953293      -0.02040272       0.00142392      -0.04777601      -0.02809179       0.02211659      -9.10179533
C        7.66566801       6.01484906      -2.20243149       0.01806559      -0.01927786       0.01457293      -0.18904135       0.10593615       0.10049940      -9.02004045
H        7.00815656       6.16050837      -3.06625885      -0.00093890       0.00181373       0.00382873      -0.01926880       0.01527036       0.02547721      -3.59769836
C        8.77227304       6.85558816      -2.01519981       0.06176846      -0.08109805      -0.03912618      -0.01928869      -0.07938801      -0.01157327      -9.01686512
H        8.96592188       7.66685730      -2.72243830       0.00653489      -0.00827932      -0.00447220      -0.00052678      -0.03390776       0.00725077      -3.60835431
C        9.59972589       6.67797520      -0.90331362       0.04940888      -0.07691499      -0.03304363      -0.01991834      -0.17167365       0.02911930      -8.97517279
H       10.42936377       7.36629521      -0.72496858       0.00448034      -0.00669131      -0.00303850      -0.02823640      -0.05190092      -0.00640844      -3.61455613
C        9.35433546       5.61523598      -0.02216825       0.04832091      -0.08216134      -0.03624795      -0.09808049      -0.03591039      -0.03913070      -8.94818282
H       10.00761806       5.44585874       0.83747217       0.00559475      -0.00878116      -0.00439315      -0.01052222       0.00035684      -0.02520591      -3.61829838
C        8.24339951       4.78285710      -0.22120530       0.01523297      -0.05086054      -0.00093747      -0.27707349       0.13001905       0.03455471      -8.98967675
H        8.04330979       3.95227085       0.46970516       0.00107391      -0.00327510       0.00087807      -0.00882005       0.07509092      -0.04179022      -3.60518243
C        4.56144868       6.06285341      -0.24689454       0.12501701      -0.02879844       0.14066022       0.10602885      -0.01137187      -0.03606535      -8.77645075
O        3.73561092       6.43873754      -1.08806428       0.09608181      -0.12089293       0.21946355      -0.04590154      -0.04256262       0.11846345      -6.92685998
N        5.26709230       6.86029860       0.57968826       0.10898732       0.14224788       0.00818680      -0.02723020      -0.02521471      -0.01293393      -8.81263186
H        5.94844167       6.49072029       1.24618941       0.02546160       0.02913398      -0.00562259      -0.01102522       0.00578796      -0.00166676      -3.62425345
C        5.29428845       8.29208763       0.40869120      -0.06882898       0.11905407      -0.17466445       0.04632718      -0.05021885      -0.10376106      -8.97824016
H        4.85546900       8.54918769      -0.56906113      -0.01271428       0.00581875      -0.01272137       0.01039385      -0.00885252      -0.01073053      -3.46469730
C        4.48156796       9.01301660       1.51321723       0.05459902       0.02163848      -0.01532265       0.04883482       0.11547940      -0.19826220      -9.37987779
H        3.42241429       8.72855856       1.42311578       0.00395186      -0.00489740       0.01992142       0.03441022       0.02840897      -0.03282186      -3.50522140
H        4.85957064       8.67239154       2.48758157       0.02715509      -0.00053716      -0.01048520      -0.02243847       0.00731535      -0.02794980      -3.48866437
C        4.70935920      10.50308957       1.33651474      -0.03102078       0.02398841       0.00392706       0.20589648       0.10500245       0.04377530      -9.03722155
C        5.60529725      11.16758323       2.18191298       0.00257850      -0.00568347       0.00014755      -0.00325735       0.06876705       0.16035208      -8.97535221
H        6.01918543      10.62694368       3.04106073       0.00607514      -0.00622948      -0.00556744      -0.04159187       0.04499172      -0.03933558      -3.59025960
C        6.01739876      12.48057620       1.94012400      -0.06302763       0.04330431       0.10949562       0.05714062       0.05102160       0.03133934      -8.85601240
H        6.72213749      12.96521084       2.62605143      -0.00658106       0.00117024       0.01203025      -0.00912159       0.01252576      -0.02355137      -3.60086294
C        5.55185192      13.16868300       0.81256752      -0.04645271       0.02595739       0.09184840       0.00602553      -0.11420404       0.00076739      -9.01541142
O        5.96553204      14.45532229       0.51200733      -0.01572751      -0.05191316      -0.16314349      -0.09219955      -0.13549581       0.00501086      -6.84850795
H        6.58806224      14.73703199       1.20677572      -0.01716522       0.01449336      -0.00351204      -0.01123226      -0.00800116      -0.01275682      -3.56953421
C        4.65942424      12.53146831      -0.04712625      -0.06783270       0.04828834       0.09979749      -0.01626420      -0.01442944      -0.02851544      -8.78854608
H        4.30349280      13.07254778      -0.92769094      -0.00386219       0.00875112       0.01049189       0.00242069      -0.00616406       0.01235155      -3.60403348
C        4.26146199      11.21290702       0.20851359      -0.05111456       0.03881570       0.02264146      -0.02152358       0.03711277       0.07442950      -9.01435757
H        3.58303998      10.71151588      -0.49610757      -0.00278168       0.00476108      -0.00053832      -0.00254211       0.00375113       0.02868286      -3.60253888
C        6.79372570       8.68093929       0.48930577      -0.05224575       0.03583846      -0.08675739       0.00370361      -0.07777166       0.02965913      -8.68625491
O        7.45158369       8.19947616       1.42306958      -0.64688208      -0.23809439       0.16254215       0.07688859       0.07590577       0.00961453      -6.94857433
N        7.28434223       9.51792708      -0.45084312       0.29159047      -0.13698753      -0.08543899      -0.16314551      -0.02590052       0.00694543      -8.87341807
H        6.68726661       9.80408265      -1.22324653       0.01177278       0.01822770       0.01154017      -0.01203231       0.00352357       0.00838272      -3.61573112
C        8.67308933       9.97653406      -0.42764181       0.15711920       0.24048768      -0.11034095      -0.14888741      -0.09543405       0.09410836      -9.52834039
H        9.17087723       9.46246453       0.39995400       0.03404410       0.03217046      -0.01397140      -0.01948747      -0.01003659       0.00085266      -3.43478540
H        9.17261742       9.74621405      -1.37879313       0.01063986       0.03219990      -0.01367751      -0.00325682      -0.01322148       0.01376122      -3.47210908
H        8.71392153      11.06401084      -0.26686060      -0.01189852       0.02214761      -0.01220183      -0.00985010      -0.01611346       0.01372700      -3.46250406
