53
Properties=species:S:1:pos:R:3:forces:R:3:energies:R:1 dipep.pdb=T energy=-332.4405527154724 stress="-9.855790572972014e-10 -1.5889023807047869e-10 -8.918282869800406e-11 -1.5889023807047869e-10 1.3824379811999372e-11 -2.2587410459894073e-10 -8.918282869800406e-11 -2.2587410459894073e-10 1.2932778680017858e-10" free_energy=-332.4405527154724 pbc="F F F"
H        2.05557352       1.12116554       0.39050565      -0.00103332      -0.00768043       0.00022039      -3.49929821
C        2.21730418       1.98603251      -0.25755329      -0.00017391       0.00092839       0.00554548      -9.33344489
H        1.41472020       2.72088082      -0.12607927      -0.00377376       0.00262252      -0.00064061      -3.53270884
H        2.18749553       1.64208296      -1.30161721      -0.00114151       0.00155735      -0.00452987      -3.52335651
C        3.58351973       2.57351187       0.07868926      -0.00520044       0.00459363       0.00250348      -8.88456890
O        4.46966057       1.96748151       0.69317327       0.00658246      -0.00489475      -0.00192025      -6.83818106
N        3.73993720       3.85204109      -0.37969972      -0.00529819       0.00439276      -0.00003057      -8.79027883
H        3.04096870       4.31805468      -0.95987156       0.00540810       0.00171331      -0.00445283      -3.63587113
C        4.96925558       4.57051743      -0.21791364      -0.00229401       0.00172820       0.00126015      -9.00684534
H        5.42470527       4.29838871       0.74908497      -0.00265791       0.00054085       0.00006452      -3.44100814
C        5.97198966       4.20097600      -1.34607459      -0.00226751       0.00206831       0.00067627      -9.35643203
H        6.16449304       3.12220881      -1.23978559      -0.00097299       0.00135960       0.00123951      -3.47546722
H        5.46215194       4.37508426      -2.30474179      -0.00266232      -0.00478120      -0.00255925      -3.48298641
C        7.25332407       5.00517515      -1.26266622       0.00187575       0.00021575       0.00301384      -9.11719821
C        7.56125733       6.00568591      -2.19655843      -0.00012051      -0.00276155      -0.00039093      -9.03164417
H        6.88311562       6.15983842      -3.04163514      -0.00667225      -0.00473619       0.00203474      -3.59782778
C        8.69738679       6.81162321      -2.04430415      -0.00010304      -0.00167553      -0.00042571      -9.01294611
H        8.90859069       7.59767418      -2.77363704      -0.00121106      -0.00184888       0.00206521      -3.61190318
C        9.53319030       6.63439322      -0.93926748       0.00260876      -0.00002536       0.00001172      -8.97035644
H       10.39334806       7.29091977      -0.79681914       0.00506948       0.00573578       0.00010870      -3.61550252
C        9.24853008       5.63670440      -0.00116076       0.00066965       0.00536664      -0.00046365      -8.96426952
H        9.88886376       5.49947357       0.87219965       0.00041488       0.00348290      -0.00104355      -3.61596525
C        8.12052617       4.82923453      -0.17296907       0.00181243       0.00036193       0.00106776      -9.00251086
H        7.88565638       4.04513018       0.55613594       0.00396722      -0.00263047       0.00085337      -3.59828960
C        4.59545786       6.05883418      -0.28987228       0.00490703      -0.00249042      -0.00333541      -8.78745941
O        3.75848956       6.42925852      -1.12105763      -0.00291194       0.00224218      -0.00318889      -6.91221702
N        5.25161584       6.85741018       0.57514247       0.00509415       0.00154336       0.00104858      -8.81677112
H        5.92032979       6.49108395       1.25599221      -0.00096870       0.00461080       0.00007017      -3.62181863
C        5.28805556       8.28754466       0.39785714       0.00257852      -0.00284927      -0.00326373      -8.98150845
H        4.85870369       8.53711714      -0.58548749      -0.00421844       0.00021354       0.00003942      -3.46448607
C        4.49419393       9.04043856       1.49576030      -0.00046341      -0.00215810      -0.00291134      -9.38949234
H        3.42709283       8.79769738       1.39058096      -0.00007797      -0.00080276       0.00002419      -3.49820970
H        4.84694768       8.67800827       2.47099370      -0.00238786       0.00094066      -0.00124706      -3.48853153
C        4.74960754      10.52880681       1.35310519      -0.00216771       0.00254597       0.00089670      -9.04374472
C        5.58520764      11.21573363       2.24128923       0.00016000      -0.00254363       0.00006621      -8.98546368
H        5.94412235      10.70318799       3.13817559       0.00287487      -0.00200930       0.00304575      -3.59579001
C        6.00895196      12.52184528       1.97969199      -0.00096745      -0.00477589       0.00301553      -8.85051888
H        6.68250792      13.03161271       2.67732090       0.00211064       0.00423506      -0.00347995      -3.60149739
C        5.58032287      13.17412164       0.81790199      -0.00634394      -0.00358675      -0.00035640      -9.02373838
O        5.99549550      14.45130402       0.49616412       0.00235700       0.00869255       0.00181171      -6.84779592
H        6.60948349      14.75011122       1.19109258      -0.00361361       0.00188114      -0.00405405      -3.56792379
C        4.70891773      12.53142947      -0.05753786      -0.00314274      -0.00690723       0.00073308      -8.79336667
H        4.37761520      13.06464306      -0.95123799       0.00038549      -0.00160885       0.00170220      -3.60237497
C        4.30651562      11.22343242       0.21571945      -0.00136574       0.00303857       0.00094267      -9.01407522
H        3.63639508      10.70584221      -0.48486714       0.00412413       0.00249796       0.00724738      -3.59847083
C        6.77808920       8.66555460       0.50172621       0.00228033      -0.00855002       0.00139344      -8.68709282
O        7.43577273       8.20693780       1.44710771      -0.00568642       0.00372430      -0.00362453      -6.94866362
N        7.25859047       9.50085838      -0.43849748      -0.00266035       0.00239583      -0.00560104      -8.87376460
H        6.66553163       9.79302301      -1.21159472       0.00454224      -0.00123457       0.00044105      -3.61656935
C        8.64819360       9.93759898      -0.39560130       0.00319420       0.00161032       0.00193854      -9.52837802
H        9.12325331       9.40536357       0.43377131       0.00371508      -0.00350212       0.00024624      -3.42724299
H        9.15768983       9.70634762      -1.34092907       0.00621804      -0.00316932       0.00095006      -3.47174349
H        8.70628525      11.02157400      -0.22014477      -0.00039145       0.00038242       0.00124154      -3.46298193
